LAMMPS data file.

0     atoms
4     atom types
0     bonds
4     bond types
0     angles
1     angle types
0     dihedrals
0     dihedral types
0     impropers
0     improper types

-12.00000000 12.00000000  xlo xhi
-12.00000000 12.00000000  ylo yhi
-12.00000000 12.00000000  zlo zhi

Masses

1     16.0000 
2     16.0000 
3     16.0000
4     16.0000