LAMMPS data file.

60    atoms
2     atom types
30    bonds
2     bond types
0     angles
1     angle types
0     dihedrals
0     dihedral types
0     impropers
0     improper types

-12.00000000 12.00000000  xlo xhi
-12.00000000 12.00000000  ylo yhi
-12.00000000 12.00000000  zlo zhi

Masses

1     50.0000
2     10.0000