ITEM: TIMESTEP
2010000
ITEM: NUMBER OF ATOMS
70
ITEM: BOX BOUNDS pp pp pp
-6.7103167285423773e+00 6.7103167285423773e+00
-6.7103167285423773e+00 6.7103167285423773e+00
-6.7103167285423773e+00 6.7103167285423773e+00
ITEM: ATOMS id mol type xu yu zu vx vy vz 
1 0 1          2.477410074          5.434308418          10.17237662       0.001757476571      -0.003185345147       0.003018522487 
2 0 1         0.7922606513            6.1807077          10.94682266      -0.001771914975       0.002356837082      0.0001537727882 
3 1 1         -8.886247999          6.918141038       -0.08902288767      0.0003165361384       0.001796667856       0.004948418119 
4 1 2         -8.753020437          7.031697461         -1.616685187       0.001489741129      -0.001761104859      -0.006247233967 
5 1 1         -8.914124696          8.678883555         -1.732474995       0.002958313322       0.004751228117      -0.001045354073 
6 2 1         -15.31193992        -0.4250329176           9.55511245     -0.0008378647763      -0.001242783172      -0.001262740198 
7 2 2         -14.26115977         -1.514554297          9.652328926        0.01754498979       0.009425358553       0.001899143757 
8 2 1         -14.92661321         -2.549086662          8.924085805     -0.0002879624866       0.001703079796      -0.002781880787 
9 3 1         -1.571515016          21.71595038          4.448169554      -0.001800114606      -0.002518374023        0.00012195379 
10 3 1         -3.168597371          21.44966914          3.421072912      0.0006723155943       0.002137329995       -0.00197724281 
11 4 1          21.75186239         -17.70565993          -2.69947139      -0.001516291908       0.004142403812       0.001233157106 
12 4 1          23.59819722         -18.46220569         -2.768149501        0.00232897912      0.0008915912806       0.002144033027 
13 5 1          11.69562784         0.3117163117         -7.682841475      -0.003283936942       0.001588974806       0.001947481842 
14 5 1          11.52494858         -1.044568278         -9.073190234      -0.001603443664      -0.000782531949       0.002268201714 
15 6 2          1.279059055         -19.43780481          7.617428954     -0.0005954317357      -0.003391299357      -0.003761987136 
16 7 1         -2.618295572          1.175467417         -14.01389498      -0.001984485364      -0.002244170458      0.0003761498992 
17 8 1           6.68463194          -12.6837909           18.9884673       0.003650121316      -0.003230257427      -0.004467696748 
18 9 1          3.520531324         0.2778470247          3.480306841       0.002216043177      6.268494033e-05      0.0007495366542 
19 10 1           17.4023449          3.970215137         -8.926904586       0.001627530184       0.003913748938      -0.004792546837 
20 11 1         -4.674325612         -2.196602652         -6.607175817       0.001356871366      -0.002852584161      0.0004945544344 
21 11 1         -4.500817556         -4.192331624         -6.219607918      -0.002720461553      0.0002292664081      0.0004420795527 
22 12 1         -12.62805102          2.726921906         -19.89025798       0.001654930986       0.002532108405     -0.0001570228604 
23 12 2          -13.5457839          2.253745406         -18.93940178       0.003863022783       0.007375757791      -0.009883740702 
24 12 1         -13.04734639          2.819654978          -17.7047036      -0.000352089992       0.001744217076      -0.004635146074 
25 13 1         -4.079220024           2.11650488          21.21872946       -0.00258938078       0.001061152791       0.002475817446 
26 13 1         -5.297110551          1.368540827          22.51233029       0.001692528827     -0.0008668758573       0.001067393358 
27 14 1          21.25374452          5.787484443          8.772755219     -0.0005948210194      0.0001528076062       0.001733642736 
28 14 2           20.3773394          6.711642338          9.461517834      -0.002778059661      -0.004866467187       0.001752959427 
29 14 1          19.25735243          7.102924865           8.26015686       0.002057993123      -0.001403733353      -0.001482733109 
30 15 2         0.5213191268         -30.08009382          14.15977518      0.0006851192356       0.005019206369       -0.00979482975 
31 16 1         -18.04682831         -2.997355795         0.5590597182      0.0009640291726       0.005779202171      9.257784819e-05 
32 16 2         -17.65625937         -2.416338595          1.857721704       0.004844743944       0.003183129624     -8.569163702e-05 
33 16 1         -18.93972953         -1.723075341          2.489510274      0.0004136635174     -0.0007995830758      0.0001680033453 
34 17 2          11.81195249         -29.33118752          12.14398167       0.008030530201       -0.00294056569      0.0008042245377 
35 18 2          11.78300293         -17.69851928          13.17994633       0.001604439186      -0.005156288892      -0.001541726992 
36 19 1           14.4190008           16.0298793         -14.23079351      0.0002387142009        0.00032641946       0.001493773361 
37 19 1          16.31564373          16.20182165         -13.57863425      -0.002672370385      -0.004364484427      -0.003627139701 
38 20 1          15.33363039          7.855821877         -10.77414254      0.0004371132321      -0.003459084615       0.001062383231 
39 21 1         -19.50919944         0.2113298883          12.67332294      -0.001918637595       0.001319113491       0.001279710809 
40 21 2         -20.65219329        -0.1692806855          13.58829144       0.002712312332      -0.008539797716       0.001875672605 
41 21 1         -21.52625054        -0.9870363277          12.74737936      -0.001156808167       0.003118770548       0.002111765466 
42 22 2         -5.216574615         -20.60434799          13.87008955      -0.003909628818       0.003500931935      -0.004149315704 
43 23 1          1.518752925          25.27089182         -6.764168312     -0.0008036267313       0.002568470426      0.0009729263687 
44 24 2          14.62228843         -33.80616198         -7.711031831      -0.002810738946        0.00145102328       0.003415742138 
45 25 1          2.461048345         -15.25444358          10.11983821       0.001198003633     -0.0007588326325     -4.034783715e-06 
46 25 2          1.118148201         -14.65952166          11.05545693       0.008567567807        0.01031951242     -0.0005378255882 
47 25 1          1.733465377         -14.25706127           12.2353413     -0.0006805687231     -0.0005822216613      0.0005353288078 
48 26 1          9.445354519          2.141172854         -10.48353599       0.000149759247     -0.0001242821697       0.003153520972 
49 26 1          9.266265629          4.188909708          -10.6879535       0.000217000929      0.0005272977148        0.00167996431 
50 27 1         -6.923333956          17.28465517           11.5165336     -0.0004026179841       0.004690846503       0.001821238654 
51 28 1         -7.282225816          16.25739932          1.962971403      -0.002978651395       -0.00185641887      -0.003832713163 
52 29 1         -1.740107628         -8.254181717         0.3976449968      0.0006967877856     -0.0001098904474      -0.001059322696 
53 29 2         -2.392508714         -7.530241368        -0.8005398947       0.008872807929      -0.006597722427       0.004441104574 
54 29 1         -2.944867361         -8.679632412          -1.67616572      -0.004028110216      -0.002046196067      4.244713256e-05 
55 30 1          -6.63017217          7.108110223          3.199477608       -0.00132856461      -0.001408386616      0.0006693656581 
56 31 1           4.04557951          2.331896699         -3.615068013       0.001299928378      0.0009660105751      -6.41463382e-05 
57 31 1          4.069015624          1.460105307         -5.443632138     -0.0009152999073      -0.001148353669       -0.00072343078 
58 32 2          20.38067918         -22.96379834          5.172384022     -0.0009161229307       0.000536822699       0.004998844048 
59 33 2         -1.526292858         -29.35824644          14.93946239       0.003438098197      -0.003720689337       -0.00628077062 
60 34 1         -16.23425606         -22.16426694         -7.380692288      -0.001373409952       -0.00142192459       0.002992617987 
61 34 2         -15.51049514         -20.83236925         -6.908010782       0.009545519799       -0.00305801396       0.003738027948 
62 34 1          -15.4606007         -20.95442582         -5.403571129      0.0007344197207      -0.005191018879      -0.001673960178 
63 35 2          15.90799978         -18.17614982         -7.224201341       -0.00209457189       0.001445039883     -0.0001061602909 
64 36 1       -0.09282919462          2.167542273         -10.87695675       0.003476677704     -0.0006121728512      -0.004074183548 
65 36 1        -0.3277739617           3.93314074         -9.883197617     -0.0005581469292       0.002702368077      -0.004000320092 
66 37 1          4.881891419          9.889793643          15.37036426      -0.002201156926      -0.004226551931       0.003578708918 
67 38 2         -12.88397676         -15.47070151          16.05055632      0.0006308175579      -0.001762033621      -0.005222742091 
68 39 1          6.185252155          -1.88507884         -17.88686745     -0.0006566269213      -0.003607123875      0.0008642306594 
69 39 2          5.387719421         -1.559743842         -19.14783982      -0.006583708651       0.001097055835       0.000544733675 
70 39 1           5.09377698         -2.774076445         -19.77617633      -0.001526662188      -0.001331387022      0.0007966506481 
ITEM: TIMESTEP
2011000
ITEM: NUMBER OF ATOMS
70
ITEM: BOX BOUNDS pp pp pp
-6.7796810634256062e+00 6.7796810634256062e+00
-6.7796810634256062e+00 6.7796810634256062e+00
-6.7796810634256062e+00 6.7796810634256062e+00
ITEM: ATOMS id mol type xu yu zu vx vy vz 
1 0 1          2.885365757          6.969205821          10.84945999      -0.005699201244      -0.003143529347      -0.003369668115 
2 0 1          1.536358876          6.975410917          9.417154983      0.0003123695637       0.001358869985      -0.001459541478 
3 1 1         -8.069928076          7.122881332         0.1035198493      -0.001284055431       0.001747180732      0.0008894307374 
4 1 2         -7.320898043          8.449756907       -0.03144240757       0.003553840683      -0.004899413612        -0.0104223119 
5 1 1         -7.593414005          8.783397636         -1.385612178      0.0006761222848     -0.0004853553202     -0.0007728661662 
6 2 1         -15.03823051         -1.873196407          9.270330796     -0.0006003082164     -0.0002713287563     -0.0008802117158 
7 2 2         -14.30517159         -2.391256156          7.988018238      -0.008913915887      -0.001384843836       0.005605211649 
8 2 1         -14.89410394          -3.91321458          8.028760243      0.0001728641849       -0.00504112206      -0.001627925737 
9 3 1         -2.054737581          21.60881192          2.648702845     -0.0008020920032      -0.003126718478      -0.003209525998 
10 3 1         -2.045983745          21.13402663          4.600067078       0.001772801363       0.003972290007       0.002841344604 
11 4 1          22.04900551         -16.19273395         -2.348426972     -0.0002886873738      0.0001075759721      0.0002401741005 
12 4 1             22.87308          -18.0347389         -2.564615289      0.0002400698822       0.002713300458      0.0001225644589 
13 5 1          10.78236041            0.6771077         -7.098908717      -0.001845201469        0.00175556326      -0.002084971922 
14 5 1          11.17568598        -0.3261835553         -8.773556797       0.001332712044      0.0004653999235      -0.001279856069 
15 6 2           3.17861239         -19.14545839          5.318348165       0.008155555707     -0.0004001292636      -0.003291165568 
16 7 1         -1.369581843         0.6331950434         -12.96252995     -0.0009783376527       0.000782494471       0.001902543702 
17 8 1          6.855651004          -12.8514895          19.06919836      -0.001901312791     -0.0002483291614       0.001798574465 
18 9 1          3.354413614          1.259599201          3.997410501      8.216838122e-05       0.002327810884      0.0006770326857 
19 10 1          17.61054669          5.019363233         -8.180284682       0.002604719597      -0.004252081221       0.002698449215 
20 11 1         -5.179029256          -2.80138875         -7.180869931      -0.001065299904      0.0007791316119      -0.002343229344 
21 11 1         -4.931930541          -4.21541551         -6.061841005        0.00121877518     -0.0004790666782       0.001021644112 
22 12 1         -13.41034607          3.843747732         -18.88423396       0.000699976761      7.982421726e-05      -0.001834338577 
23 12 2         -12.60239876          2.704868726         -19.00959054       0.003772576621      0.0006139351396      -0.002455121453 
24 12 1         -13.18722162          1.514603851         -18.11346895      -0.001200370522       0.003065918712       0.003793948005 
25 13 1         -5.362112802          2.332368113          22.80420523       0.002773473713     -0.0003175941734       0.001583483485 
26 13 1         -4.946696312         0.4822854139          23.06446801      0.0007057668812      -0.000715989053       0.002894022307 
27 14 1          21.32512779          6.536048128           9.34868151         0.0018467289      0.0001020794533       0.005804756977 
28 14 2          21.46169257          5.606708564          8.335510392       -0.00525512462      -0.002417189638      -0.001680479574 
29 14 1           20.1695846          5.671702649          7.594210133       0.001198147017     -0.0001563667455     -0.0001787971844 
30 15 2          3.296518206         -30.45558599          13.19549248       0.007378143106      -0.002160543594         0.0114137052 
31 16 1         -17.41778545         -2.339069954          1.169056925       0.004193550717       -0.00107055281       0.000160019781 
32 16 2         -18.61547075         -2.930255191         0.6701284077      -0.001856406854       0.001968982384      -0.004438300067 
33 16 1         -19.21516325         -3.446190413          1.892174285        0.00392492814       0.003156282501       0.003358429223 
34 17 2           12.0572612         -29.96224532          12.51330572       0.003376976658      0.0009649702473      -0.001379398557 
35 18 2           13.2894415         -18.24082518          11.74921652      -0.004839768123      -0.002678525647       0.002350158514 
36 19 1          15.97028885          17.00454422         -15.09720917       0.001523562128       0.002230240592      0.0003262653058 
37 19 1          15.80820939          17.31068087         -13.24887046      0.0006325139178      -0.004159560446       0.002269919629 
38 20 1          14.91571722          6.875769486         -12.39959402      -0.002890666362      -0.000415615711      -0.001274618957 
39 21 1         -20.84583124         0.6603273245          12.52590301       0.001542136837     -0.0003025774988      -0.005409701966 
40 21 2         -21.76474414        -0.4639941107          12.87411985      -0.006388819321     -0.0006266100867      -0.006883111208 
41 21 1         -22.25796787        -0.2228852534          14.18454135      -0.001354383336      0.0003365036929       0.002663068261 
42 22 2         -4.843399336          -20.0086468          13.76034641       0.001848043968        0.00115893948      -0.003604855137 
43 23 1          1.932688076          24.71661706         -7.258330473      0.0003904538799       0.002179727996      -0.002317527187 
44 24 2          14.33970119         -33.18072082         -8.060403777      -0.004709558745       0.002489907071      0.0008113389603 
45 25 1          2.126531634         -16.40310552          10.45489542      -0.001405799317      -0.001621720579      0.0002703557179 
46 25 2          1.509408318         -15.81684454          11.73512601       0.008443280255      -0.009716810802      -0.001611132239 
47 25 1          1.123253029         -14.55466426          11.58681676      0.0004086912622      0.0004019591128        0.00169294439 
48 26 1          9.763209053          3.344818641         -10.76315279      -0.003095682211       0.001357683418      -0.003508154923 
49 26 1          9.825518329          3.906807694         -12.64530143     -0.0004874802585     -0.0005673600513      -0.001755191649 
50 27 1         -7.499723404          17.55350812          11.66134166      0.0007727218066     -0.0002706094523      -0.001018259637 
51 28 1         -7.794005761          17.13783573          2.307442108     -6.394947995e-05      -0.002741363338       0.001519726312 
52 29 1         -1.670282095         -7.573374072           -1.9694662      -0.001247174374      -0.000222633971      -0.001788734711 
53 29 2         -2.690668218         -8.424855693         -2.028581586       0.001015371241       0.006815334246       0.003342639244 
54 29 1         -2.270644275          -9.67466688          -2.69955932      -0.001208368331     -0.0003828537398       0.001525207877 
55 30 1         -6.076068754           6.93115288          4.425706869      -0.003396733386     -0.0005806479011      0.0005242279839 
56 31 1          4.002969261         0.9159736711         -4.349285305      -0.003432986551       0.003314438306       -0.00226390189 
57 31 1          4.098704614          2.897407017         -4.812155713       0.001456628437     -0.0007248608037      -0.001203622827 
58 32 2          20.91795127         -23.11127252          4.902042564      0.0008721872146       0.005871517841       0.004659111766 
59 33 2         0.4733938919         -29.81603913          14.01403284      -0.005430663045       0.006978759214       0.002873867504 
60 34 1         -16.85732387         -22.59528433         -7.061988478     -0.0009419839581     -0.0009373528346      -0.002567053255 
61 34 2         -17.02154836          -22.0620467         -5.578877805        0.00546022379      -0.002598675077      0.0007178836415 
62 34 1          -16.2725319         -20.81697831         -5.467154331      0.0008663320551      0.0006171511395       0.001879998715 
63 35 2          14.88130097         -17.94602704         -9.593166938       0.000199058323      -0.002397003889       -0.00951705363 
64 36 1        -0.1680234865          2.868678957         -8.767500772      -0.001499634742       0.003151228444        0.00325578311 
65 36 1      -0.002418847252          4.613042502         -9.875074166     -0.0002640201896      0.0004121448429       0.001880311271 
66 37 1          4.185827004          10.18319905           16.3333883       0.003647512639      -0.000294313666      -0.003645451038 
67 38 2         -12.14542963         -15.14375243          16.38327223       0.002027676773      -0.002744282564      -0.003791477786 
68 39 1          5.499168564         -2.603353448         -18.35129464      0.0007086643215      -0.001999935108      0.0007789989456 
69 39 2          4.897197107         -3.367088728         -19.51212007       0.001393270146      0.0004607665193      -0.004765307556 
70 39 1          4.341956613         -4.471603243         -18.92278267     -0.0007710523683     -0.0009451776547       0.001833084612 
ITEM: TIMESTEP
2012000
ITEM: NUMBER OF ATOMS
70
ITEM: BOX BOUNDS pp pp pp
-6.7851644491134113e+00 6.7851644491134113e+00
-6.7851644491134113e+00 6.7851644491134113e+00
-6.7851644491134113e+00 6.7851644491134113e+00
ITEM: ATOMS id mol type xu yu zu vx vy vz 
1 0 1          3.058312386          5.889716437          10.82718891      -0.001518916348      -0.001195342897       0.002975236928 
2 0 1          1.737300633          6.877823099          9.863377112      0.0008539669604     -0.0008508019297      0.0005240064234 
3 1 1         -8.877210726          7.128862704         0.3960794751      -0.002677213454       0.001867098161       0.002264611758 
4 1 2         -7.953266156          7.900988074        -0.5350813785       0.009271302208      -0.009526774928      -0.004431953558 
5 1 1         -8.575691299          8.708568378         -1.459675654      -0.002449530945       0.002316051562       0.001652056158 
6 2 1         -15.57087295           -1.8012997          7.977721255      -0.001417008744      -0.001790116068       0.001104193984 
7 2 2         -15.21186479         -2.463077899           6.90915525      -0.007721842725       0.006115572525       0.002093309101 
8 2 1         -15.01869775         -3.942805656          7.125597476     -0.0001474748212     -1.313274522e-05     -0.0002886858691 
9 3 1         -2.583047822          21.25388501          3.733270058       0.003165267107       0.003425834934        0.00305419311 
10 3 1        -0.8778389123          22.49569561          3.772442987     -0.0009300519592      0.0005707600658        0.00277928861 
11 4 1          22.77517229         -16.38797933         -2.312812235       0.002695193649      0.0005985687808       0.001242518521 
12 4 1           24.0202564         -17.72658544         -2.831616073      -0.001897609165      -0.001172947957       0.002825279706 
13 5 1          10.39511417         0.9377820921          -9.13123204       0.001641420064       0.003193318278      -0.000267812248 
14 5 1          12.00913602         0.2539683048          -10.0594732     -0.0006579216962       0.001637610555      -0.002897602884 
15 6 2          3.331510723         -18.84451085          4.694279235      -0.004353639808      -0.006367057876      0.0007769766534 
16 7 1            -3.801928            1.3802503         -13.23765644       -0.00558312896        0.00140916224      0.0008815713156 
17 8 1          5.885505552         -13.52666676          19.44769624      -0.001217609456     -0.0003175991052       0.001639766703 
18 9 1           2.70133026          2.067826896          5.142288178      0.0003049240846      0.0006458294547       0.002899533245 
19 10 1          17.17331158          5.079296728         -7.080616664      0.0009796351773       0.003504700022       0.001562341078 
20 11 1         -5.425954043         -3.519459984           -6.2703517     -0.0004721811055      0.0003656581658      -0.003312108998 
21 11 1         -5.401679585         -4.837526593         -7.876940583       -0.00250518248      -0.001552643966       -0.00257399203 
22 12 1         -13.04973366          3.718153645         -19.25305071      -0.001106091747      0.0008553165002       0.001418060247 
23 12 2         -13.55187533          2.347912562         -19.27702489        0.01042651059      -0.005980091344       0.001874113157 
24 12 1         -13.19629836          1.773958857         -17.90950877      0.0004110844933      -0.001251802657       -0.00154371843 
25 13 1         -3.755375764           1.72974447          22.04735761      2.357465985e-05     -0.0002392812767       0.003758401728 
26 13 1         -4.440939851         0.5210980495           23.5371939      -0.002802134609     -0.0005724417867     -0.0003113395192 
27 14 1          21.32359794          6.973942575          10.23674777      -0.002557379238      2.623289018e-06     -0.0002821227866 
28 14 2          21.05953226          5.619263848          9.532160762       -0.01207009482      -0.001454363987      -0.007705609135 
29 14 1          19.97559449          5.667294125          8.729912824      0.0003763129975      -0.001293143172      -0.001331027994 
30 15 2          2.745299206          -30.3415665          14.54028152      -0.008883409725       0.003930097749       0.008709803701 
31 16 1         -16.20081988         -2.123620454          1.075593372       0.001737821479       0.001088730758       0.000584889062 
32 16 2          -17.6027864         -2.720699661         0.9599502736       0.006126925528      -0.006808718764       0.008595020933 
33 16 1         -17.90570649         -3.234103276          2.322767741      0.0002319923194       0.001490659713       0.001842474474 
34 17 2          12.88851283         -27.65678417          12.32945465      -0.001617715635     -0.0001179025075       0.007927628325 
35 18 2          13.82296149          -16.6973555          14.40922337       0.002385488542       0.009700051781       0.006534627018 
36 19 1          15.22104535          15.70984606          -14.8458123       0.001514069003      -0.002329665045        -0.0026725924 
37 19 1          16.53193443          16.17429651         -13.39732126       0.002183084044       0.001162834582      -0.001462554251 
38 20 1          14.99636884          6.140830606         -13.06557252       0.004518447979       0.001241700588      -0.003797962762 
39 21 1         -20.89344539         0.2450384994          12.40354827      0.0007717082943      -0.005681330426       0.004469122598 
40 21 2         -20.04824697          -0.62532156          13.27646113      -0.001479982745      -0.008436878273      -0.008319195793 
41 21 1         -20.91551678         -1.704433649          13.79996557       0.001193737577      -0.001606058663     -0.0004693739829 
42 22 2         -6.018262256         -18.22811587          14.17706177       0.003800548185     -0.0005661867146      0.0006955433969 
43 23 1          1.682852766          25.76144184         -6.961412528      -0.003608920305       0.002490892871      -0.002538416713 
44 24 2          15.48501758         -32.33062162         -6.972443012      -0.005253766986      -0.007042661877       0.003143735598 
45 25 1          1.627868576         -17.15916831          11.49861995      0.0006851874118      -0.003271678937      -0.001917320159 
46 25 2             2.683666         -16.46492756          12.45014527      -0.009942101008      -0.001706734089       0.005766397353 
47 25 1          3.333296067         -15.34121226          11.45298501       0.002335774834       0.002880136777      -0.002274024035 
48 26 1          8.696837397          4.363456695         -10.69833849      0.0007657086403      -0.001243669971      -0.003313746133 
49 26 1          8.495622153          5.535841384         -12.21687398       0.004112884734       0.002320588087     -0.0002049919334 
50 27 1         -7.049380841          17.67373664          12.46208357      0.0007885271937      1.118614124e-05      -0.002275559641 
51 28 1         -7.374788925          15.53309378          2.150942531       0.001987906247      -0.001098963845       0.002789417701 
52 29 1         -1.138115541         -8.068510346         -2.128108366     -0.0008131419212       -0.00203669969     -0.0001694203138 
53 29 2         -2.016704776         -9.123015467         -2.448544897        0.00188210921      -0.005865701133       0.002028975913 
54 29 1         -3.431490124         -8.789502006         -1.746430489      -0.003654658829      0.0002192735811     -9.800944781e-05 
55 30 1          -7.62109572          6.126395423          4.071792646     -0.0009951631772       0.002392868361      -0.002121984881 
56 31 1          3.745569179          1.802860535         -4.632184246       0.001650112525        0.00337840894       0.001413497434 
57 31 1          5.463189992          2.104076278         -4.124606033       0.005067725034      -0.001256607911      -0.002896714911 
58 32 2          20.78396366         -23.91196682          5.918713345      -0.001937344968      0.0003907599516       0.003274938564 
59 33 2         0.1080945859         -26.28872906          14.34797399      0.0003769650146      0.0002874800345      -0.006887641341 
60 34 1         -17.37938515         -22.04444644         -7.059134592      -0.002980674851     -0.0003397870468      -0.000380330706 
61 34 2         -17.15232675         -21.91057188         -5.726963629         0.0019555891      -0.004733427795      -0.004564444642 
62 34 1         -16.55788472         -20.73210984         -5.506777396      -0.001275205966      -0.000352598128      -0.001482172043 
63 35 2          16.23625554         -18.66345518         -11.18674351       0.002169890217     -0.0008545011163       0.007316686754 
64 36 1         -1.064224375           4.66149951          -10.5559578       0.002258162127       -0.00252355372      0.0001329034426 
65 36 1         0.3506043694          5.436892557         -9.476361218      -0.002260223361      -0.002146591996      -0.001806644485 
66 37 1           4.69457278          10.93064729          17.85692818       0.003599438083       0.002754958977     -0.0001621581678 
67 38 2         -11.61863515         -14.08972796          15.24090774       0.004027091795      -0.001311509639       -0.01071897116 
68 39 1          4.448200156         -3.297923323         -18.76680114      0.0001372633314      0.0003924556199      -0.003327847534 
69 39 2           4.13719365         -4.093355643          -19.9741334       0.002417372718       0.002811078998       0.002103872354 
70 39 1          4.919648066         -5.255774066         -19.85404285     -0.0007794858488     -0.0005732742624      0.0007241083927 
ITEM: TIMESTEP
2013000
ITEM: NUMBER OF ATOMS
70
ITEM: BOX BOUNDS pp pp pp
-6.6255719688160655e+00 6.6255719688160655e+00
-6.6255719688160655e+00 6.6255719688160655e+00
-6.6255719688160655e+00 6.6255719688160655e+00
ITEM: ATOMS id mol type xu yu zu vx vy vz 
1 0 1          2.521570725          5.120725669          9.341528469      -0.001611947653      -0.001217118034      -0.001893945916 
2 0 1          1.249811773          6.601577866           8.88124983      -0.001145320481       0.001111142969      0.0007846148357 
3 1 1         -8.916874647          8.472614259          1.205575495      0.0009907530335       0.003428334546       0.001822142948 
4 1 2          -8.20579393          8.325511481        -0.1983166415       -0.00748366694       0.005370591141        0.01122603443 
5 1 1         -9.397440388          8.296526288         -1.156645741       0.001562304529      -0.001803479388     -0.0002571660288 